220
* (null), Energy   -1000.0000000
C    -0.484459    0.570950    5.162028    0.003976    0.038914    0.031990
C     0.286028    1.606056    4.333385    0.006742    0.015550    0.009184
C    -0.220658    3.013850    4.680022    0.023026    0.025966   -0.009902
C     1.784056    1.531690    4.670770    0.008268    0.007542    0.002214
C     0.096431    1.383850    2.802650    0.013696   -0.003458    0.010750
H     0.609463    2.206966    2.290502    0.006218   -0.002856    0.003158
N    -1.313696    1.461458    2.409447    0.005586   -0.020872    0.017154
C    -1.820500    2.544177    1.839625    0.002932   -0.028660    0.018144
C    -1.218498    3.785664    1.309396   -0.002026   -0.018652    0.008702
C    -2.598328    4.232333    0.918256    0.001594   -0.023918    0.009714
O    -3.088474    5.203868    0.343251    0.002458   -0.021262   -0.000026
O    -0.082127    4.228647    1.203853   -0.005394   -0.009044   -0.004320
C    -3.119735    2.967818    1.461349    0.002316   -0.016688    0.008924
N    -4.342824    2.447775    1.557229   -0.000846   -0.015624    0.002070
C    -5.521796    3.139627    1.005427    0.004360   -0.007914    0.004396
H    -5.287641    4.211610    1.029641    0.008722   -0.008810    0.006286
C    -6.776933    2.931140    1.880396    0.001448   -0.003584    0.001458
C    -7.135283    1.452382    2.083613   -0.002284   -0.002828    0.002338
C    -6.507850    3.574179    3.250696    0.002062   -0.003044    0.001120
C    -7.945059    3.664392    1.205462    0.003562   -0.000832    0.000414
C    -5.649733    2.728704   -0.483043    0.003672   -0.001138    0.003306
N    -4.813691    3.429523   -1.283733    0.002438    0.002466    0.004078
C    -4.437970    2.966683   -2.618395    0.000308    0.002146    0.004220
C    -2.931090    3.164084   -2.758974    0.000400   -0.001166    0.000968
C    -2.091252    2.425902   -1.918035    0.000902    0.001628    0.003094
C    -0.717257    2.622943   -1.941022    0.000844    0.001430    0.003444
C    -0.158207    3.546484   -2.822781    0.000678   -0.001222    0.000524
C    -0.985411    4.268512   -3.676340    0.000784   -0.003138   -0.001220
C    -2.368237    4.084477   -3.640468    0.000818   -0.003228   -0.001012
C    -5.245832    3.597996   -3.734130    0.000694    0.000994    0.002626
C    -5.315797    2.941079   -4.964860    0.000534    0.000616    0.002652
C    -6.011455    3.503685   -6.029004    0.000660   -0.000232    0.002000
C    -6.649183    4.733565   -5.873072    0.000500   -0.000190    0.001308
C    -6.585729    5.390437   -4.647957    0.000398    0.000142    0.001180
C    -5.886894    4.825333   -3.582557    0.000296    0.000832    0.001666
O    -6.358136    1.808247   -0.886500    0.004382   -0.000768   -0.003260
C     0.678134    0.065596    2.293990   -0.022000   -0.029046    0.042504
N     0.624104   -0.005189    0.816247    0.006750    0.001288    0.015600
P     1.971775   -0.413844   -0.042470   -0.007714    0.014282    0.015124
H    -0.164471   -0.453685    4.945021   -0.135068    0.023254   -0.060718
H    -1.562583    0.635317    4.976213   -0.001880    0.113204    0.101760
H    -0.320431    0.759068    6.229242    0.094948    0.015080    0.024008
H    -1.291247    3.119101    4.475325    0.025202    0.032034   -0.019494
H     0.314379    3.778096    4.103890    0.033628    0.022396   -0.005960
H    -0.063345    3.214326    5.745498    0.010430    0.028534   -0.007988
H     2.375315    2.154525    3.987728    0.017300   -0.016608   -0.013626
H     2.168491    0.507298    4.626314   -0.011108   -0.000284    0.024772
H     1.950783    1.898253    5.689410    0.016040    0.027766   -0.005708
H    -1.929327    0.686741    2.651544    0.053812   -0.071044    0.014774
H    -4.449845    1.500461    1.906512   -0.002816   -0.007900    0.026720
H    -6.343798    0.897409    2.600215   -0.002328   -0.008214   -0.003084
H    -7.344086    0.958095    1.133085   -0.009966    0.000072    0.002230
H    -8.027803    1.385169    2.715969   -0.000104    0.000156    0.005896
H    -7.398685    3.486787    3.881973    0.001774   -0.001262    0.001056
H    -6.265104    4.638623    3.148212    0.003946   -0.003560   -0.000224
H    -5.677751    3.081568    3.768312    0.001078   -0.004082    0.001140
H    -7.697564    4.718482    1.028719    0.006168   -0.001282    0.000756
H    -8.826626    3.630697    1.854490    0.002892    0.001224   -0.000208
H    -8.206558    3.202613    0.249239    0.002906    0.000054   -0.000046
H    -4.262549    4.182279   -0.872915    0.013344   -0.007310    0.012630
H    -4.817376    1.980971   -5.086165    0.000796    0.000592    0.003126
H    -6.062376    2.980071   -6.979702    0.000794   -0.000614    0.002126
H    -7.197181    5.173410   -6.701565    0.000528   -0.000490    0.001098
H    -7.083881    6.347180   -4.517241    0.000294    0.000130    0.000850
H    -5.845160    5.340608   -2.627068    0.000508    0.000502    0.001796
H     0.133100   -0.785323    2.722801   -0.143810    0.007932    0.000268
H     1.721902    0.006148    2.614522   -0.026682   -0.069516    0.052122
C     4.062653   -3.860135   -0.564330   -0.007506   -0.005718   -0.001192
C     3.979454   -4.408289    0.719472   -0.008234   -0.005780    0.000080
H     4.537749   -5.315202    0.931047    0.001824    0.000818    0.003740
C     3.203673   -3.849025    1.739512   -0.010364   -0.004884   -0.000022
C     3.209598   -4.462648    3.141610   -0.004692    0.003248    0.004498
C     2.497628   -2.681360    1.452382   -0.012874   -0.002604    0.000702
H     1.874598   -2.226448    2.211150   -0.021718   -0.004042   -0.003270
C     2.601007   -2.090898    0.191738   -0.001346    0.002600    0.002632
C     3.368353   -2.676629   -0.815708   -0.002702   -0.000188    0.002244
H     3.418892   -2.201160   -1.789122    0.011650    0.009772    0.007246
C     4.123563    2.942027    0.802611    0.002068    0.000674   -0.000034
C     3.069936    2.068016    0.527700    0.001696    0.000220    0.003480
C     3.302069    0.689532    0.485026    0.003458    0.000980    0.002478
C     4.569904    0.168156    0.727975    0.003496    0.000902   -0.001576
C     5.638976    1.018984    1.014136    0.002802    0.001090   -0.001746
C     5.391927    2.392638    1.040786    0.002482    0.001016   -0.001778
C     2.535669    0.641849   -3.921539    0.001720   -0.003928    0.001176
C     2.682639    0.466078   -2.541015    0.002450   -0.006452    0.001806
H     3.588324    0.799908   -2.044563    0.003432   -0.008232    0.001424
C     1.674333   -0.139349   -1.798877    0.000960    0.001192    0.005424
C     0.492644   -0.578997   -2.409207   -0.002532    0.013390    0.002798
C     0.315834   -0.398234   -3.777216    0.000188    0.002774    0.001322
C     1.352046    0.205198   -4.508484    0.002434   -0.003342   -0.000290
H     1.215250    0.339343   -5.575442    0.003166   -0.003470   -0.000374
H    -0.292442   -1.023659   -1.808363   -0.017772    0.043906    0.004726
H    -0.289916   -0.297731    0.438484    0.021146   -0.020942    0.028218
H     4.724445   -0.904598    0.682409    0.005268    0.001168    0.001592
H     6.214411    3.063691    1.250662    0.002062    0.001318   -0.001140
H     2.070190    2.451449    0.338451   -0.001044   -0.001672    0.015500
H    -3.008108    4.663081   -4.300377    0.000560   -0.002572   -0.000176
H    -0.558859    4.991583   -4.366122    0.000538   -0.002188   -0.000424
H    -0.081607    2.053662   -1.269647   -0.000640    0.010702    0.012788
H     0.917278    3.701318   -2.837247    0.000194    0.002402    0.004028
H    -2.515559    1.693820   -1.234013   -0.002010    0.014224    0.014710
H    -4.644413    1.886415   -2.637603   -0.002032    0.002370    0.003754
C     2.138616   -3.839935    4.047476   -0.003176    0.005898    0.003932
H     2.153051   -4.342559    5.020196   -0.009782    0.001552    0.001502
H     1.134102   -3.951060    3.623339   -0.008918    0.041242    0.011712
H     2.322174   -2.774432    4.227717   -0.000314    0.002680    0.009938
C     4.595857   -4.200466    3.764901   -0.001510    0.010870   -0.004328
H     5.392625   -4.653660    3.164996   -0.001184    0.005790   -0.000660
H     4.641289   -4.627724    4.773542   -0.000390    0.022822    0.000302
H     4.792050   -3.124334    3.836252   -0.005840    0.011594   -0.014918
C     2.963513   -5.980149    3.073862    0.016014   -0.000542    0.018058
H     2.942937   -6.393466    4.088441    0.051664    0.004382    0.019906
H     3.751283   -6.500778    2.520979    0.001692    0.002360   -0.005030
H     2.010747   -6.200327    2.584083   -0.001718   -0.021718    0.065830
C     4.906808   -4.555622   -1.632930   -0.000182   -0.000374   -0.000136
C     6.372055   -4.617725   -1.160036   -0.001476    0.002996    0.004496
H     6.771337   -3.609855   -0.997824   -0.007282    0.003858    0.010420
H     6.988199   -5.113915   -1.918638    0.002830    0.009944    0.003640
H     6.473100   -5.178684   -0.225533   -0.001386   -0.000546    0.002254
C     4.372857   -5.985104   -1.847019    0.009618   -0.003300   -0.004972
H     4.959900   -6.487944   -2.624266    0.027216   -0.006446    0.010696
H     3.322805   -5.962656   -2.154313    0.018998   -0.010674   -0.039656
H     4.440969   -6.582632   -0.932514   -0.008940    0.000268   -0.001006
C     4.862475   -3.814528   -2.974555    0.002214    0.000930    0.000466
H     3.841802   -3.755407   -3.368813    0.003526    0.004882   -0.003010
H     5.473052   -4.354477   -3.705672    0.002896    0.001636    0.000672
H     5.264496   -2.797694   -2.891264    0.003190   -0.000182    0.002650
C     3.672527    1.293668   -4.709480    0.000482   -0.001656    0.001232
C    -0.957146   -0.829683   -4.507051   -0.000666    0.002930    0.002578
C     3.347644    1.421446   -6.201622    0.000172   -0.000672    0.001274
H     3.181766    0.443004   -6.665890    0.001496   -0.000222   -0.000400
H     4.190452    1.895421   -6.715316   -0.000450    0.001098    0.002000
H     2.461237    2.043013   -6.370420   -0.000268   -0.001170    0.001982
C     3.938537    2.702985   -4.145847   -0.001376   -0.001732    0.002418
H     4.217222    2.672329   -3.087231   -0.001968   -0.001702    0.002468
H     3.047813    3.333136   -4.244980   -0.001874   -0.002632    0.002492
H     4.758879    3.177244   -4.696577   -0.001738   -0.000864    0.002752
C     4.942425    0.432951   -4.557003    0.001644   -0.000072    0.000350
H     5.767011    0.877874   -5.125576    0.000838    0.001704    0.000704
H     4.770317   -0.581397   -4.934363    0.003260    0.000082   -0.001324
H     5.256951    0.357990   -3.510592    0.002174   -0.000022    0.000178
C    -1.998895   -1.424166   -3.552873   -0.000930    0.004790    0.004054
H    -1.628057   -2.330871   -3.060503    0.001670    0.009636    0.012580
H    -2.893418   -1.699074   -4.122083    0.001080   -0.002528    0.004638
H    -2.294078   -0.706929   -2.779989   -0.006534    0.010386   -0.003266
C    -0.593990   -1.893722   -5.560820   -0.002534    0.001726    0.002866
H    -1.497952   -2.216661   -6.089803   -0.002620    0.001792    0.002962
H    -0.140837   -2.770513   -5.085014   -0.001248    0.001388    0.001742
H     0.110163   -1.505105   -6.303668   -0.002846    0.001054    0.002530
C    -1.583720    0.395098   -5.202931   -0.001666    0.001650    0.001646
H    -0.910664    0.831399   -5.947781   -0.001360   -0.000498    0.000934
H    -1.832584    1.171753   -4.471638    0.000340    0.003064    0.000660
H    -2.503824    0.095853   -5.718375   -0.002342    0.002082    0.002640
C     7.022929    0.412776    1.251537    0.002432    0.000834   -0.000390
C     3.872776    4.450376    0.867884    0.000624    0.000174    0.000330
C     8.071295    1.471612    1.610093    0.002338    0.000700   -0.000154
H     9.035783    0.981812    1.779392    0.002474    0.001090    0.000680
H     7.804417    2.010909    2.525876    0.001188    0.000602   -0.000578
H     8.206319    2.200295    0.803219    0.002216    0.000824   -0.000032
C     7.472379   -0.308540   -0.034982    0.003530    0.000504    0.000194
H     6.775874   -1.107862   -0.309885    0.002674    0.001106    0.000004
H     8.461564   -0.757512    0.111367    0.003356   -0.000082    0.000422
H     7.532518    0.394789   -0.873102    0.004044    0.000366    0.000042
C     6.943598   -0.606820    2.404385    0.001924    0.001492    0.000134
H     6.596214   -0.126019    3.325609   -0.000582    0.001548   -0.001028
H     7.934597   -1.035596    2.591363    0.002028    0.002236    0.002026
H     6.261958   -1.431563    2.171669    0.002102    0.001296    0.000028
C     3.013196    4.899024   -0.329079   -0.000186   -0.001112    0.000234
H     3.501361    4.640818   -1.276463   -0.001098   -0.001580   -0.000382
H     2.879253    5.985779   -0.296683   -0.000278   -0.001102   -0.000096
H     2.015844    4.452641   -0.311805   -0.000402   -0.000778    0.003244
C     5.178599    5.256427    0.847483    0.000266    0.000704   -0.000080
H     5.778207    5.033099   -0.042762    0.000762    0.001350   -0.000126
H     5.791478    5.073795    1.736659    0.000032    0.001126    0.000204
H     4.937455    6.324180    0.832385   -0.000556    0.000512    0.000286
C     3.123879    4.754911    2.180441   -0.000932   -0.000740   -0.000482
H     3.720885    4.444589    3.045969   -0.002850   -0.001632    0.000286
H     2.159738    4.239545    2.208880   -0.001054   -0.000424   -0.001036
H     2.931004    5.831242    2.260459   -0.000280   -0.000594   -0.000940
O    -5.673242   -1.694759    3.401654    0.112904   -0.045442   -0.001418
O    -2.014453   -0.664420   -0.153186   -0.011594   -0.108488    0.065536
H    -4.089360   -2.709531    5.489045    0.004750    0.035160   -0.036228
H    -4.036831   -0.916650    5.656771    0.290776    0.033844   -0.068112
H    -2.117606   -4.963541    3.522583   -0.023194    0.052138   -0.058274
C    -2.299801   -3.269880    2.186817   -0.532966   -0.665022   -0.639916
C    -1.764175   -4.537329    2.590052   -0.105704   -0.030408   -0.121524
C    -3.646882   -1.783811    5.115530    0.150512   -0.040596   -0.054128
C    -2.638448   -1.658611    0.259741   -0.102394   -0.074874   -0.037086
C    -1.946737   -2.814604    0.871411   -0.167928   -0.182058   -0.096950
C    -0.806071   -5.172749    1.847039    0.124718    0.028150    0.011178
S    -4.205110   -1.576166    3.417554    0.126930   -0.000782   -0.021808
H    -0.396953   -6.122283    2.172769    0.342920    0.176622    0.150742
C    -0.947510   -3.434256    0.154772    0.065158    0.003704   -0.025090
C    -0.369879   -4.611607    0.632729   -0.023038    0.030364    0.027680
H    -4.198433    0.303477   -0.210693    0.001752   -0.014244    0.004716
N    -3.673915   -3.014186    2.623716   -0.060322   -0.083322   -0.107324
H    -0.659110   -3.058215   -0.820169    0.278826    0.157296    0.101692
N     0.584878   -5.298451   -0.177883    0.094944   -0.022508   -0.033516
H    -2.558082   -1.817039    5.122801    0.157812   -0.214916   -0.271176
N    -3.988351   -1.748531    0.100541   -0.082422   -0.034416   -0.044814
C    -4.693521   -0.618529   -0.513351   -0.032084    0.013334   -0.023406
O    -3.647208   -0.310852    2.876323   -0.022878    0.017758   -0.100998
H    -4.338916   -5.635216    3.564936   -0.072174   -0.039064   -0.097636
H    -4.678250   -0.672932   -1.608518   -0.029858    0.025270   -0.022904
C    -4.627687   -3.521260    1.669525   -0.237638    0.046456   -0.011676
C    -4.744635   -2.907237    0.415174   -0.154556    0.004222   -0.031812
H    -5.725708   -0.608139   -0.163521   -0.029406    0.040370   -0.021004
C    -5.341851   -5.241168    3.372872   -0.076082   -0.010008   -0.031854
C    -5.430259   -4.616397    2.012009   -0.153464   -0.002716   -0.022686
H    -5.557375   -4.502856    4.152529    0.005398   -0.003264   -0.015808
H    -6.059104   -6.060156    3.464095   -0.087276    0.004290    0.012152
C    -5.666592   -3.392275   -0.511236   -0.109848   -0.018228   -0.052184
H    -5.760174   -2.915808   -1.481841   -0.083674   -0.046020   -0.068374
C    -6.340330   -5.089417    1.066000   -0.106806   -0.032256   -0.045748
C    -6.456987   -4.484394   -0.181004   -0.088120   -0.036280   -0.051720
H    -6.971863   -5.936888    1.317556   -0.078356   -0.061172   -0.072232
H    -7.171332   -4.866779   -0.904109   -0.052150   -0.067498   -0.068900
F    -1.490821   -2.137738    3.269047    0.614256    0.845574    0.779330
O     0.910875   -4.801269   -1.266682    0.030704   -0.001882    0.018272
O     1.050195   -6.373528    0.232032    0.027616    0.021314   -0.007442
220
* Frequency(6) -188.8400
C    -0.484007    0.575372    5.165663    0.003976    0.038914    0.031990
C     0.286794    1.607823    4.334429    0.006742    0.015550    0.009184
C    -0.218041    3.016801    4.678897    0.023026    0.025966   -0.009902
C     1.784996    1.532547    4.671022    0.008268    0.007542    0.002214
C     0.097987    1.383457    2.803872    0.013696   -0.003458    0.010750
H     0.610170    2.206641    2.290861    0.006218   -0.002856    0.003158
N    -1.313061    1.459086    2.411396    0.005586   -0.020872    0.017154
C    -1.820167    2.540920    1.841687    0.002932   -0.028660    0.018144
C    -1.218728    3.783544    1.310385   -0.002026   -0.018652    0.008702
C    -2.598147    4.229615    0.919360    0.001594   -0.023918    0.009714
O    -3.088195    5.201452    0.343248    0.002458   -0.021262   -0.000026
O    -0.082740    4.227619    1.203362   -0.005394   -0.009044   -0.004320
C    -3.119472    2.965921    1.462363    0.002316   -0.016688    0.008924
N    -4.342920    2.445999    1.557464   -0.000846   -0.015624    0.002070
C    -5.521301    3.138728    1.005927    0.004360   -0.007914    0.004396
H    -5.286650    4.210609    1.030355    0.008722   -0.008810    0.006286
C    -6.776768    2.930733    1.880562    0.001448   -0.003584    0.001458
C    -7.135543    1.452061    2.083879   -0.002284   -0.002828    0.002338
C    -6.507616    3.573833    3.250823    0.002062   -0.003044    0.001120
C    -7.944654    3.664297    1.205509    0.003562   -0.000832    0.000414
C    -5.649316    2.728575   -0.482667    0.003672   -0.001138    0.003306
N    -4.813414    3.429803   -1.283270    0.002438    0.002466    0.004078
C    -4.437935    2.966927   -2.617915    0.000308    0.002146    0.004220
C    -2.931045    3.163951   -2.758864    0.000400   -0.001166    0.000968
C    -2.091149    2.426087   -1.917683    0.000902    0.001628    0.003094
C    -0.717161    2.623106   -1.940631    0.000844    0.001430    0.003444
C    -0.158130    3.546345   -2.822721    0.000678   -0.001222    0.000524
C    -0.985322    4.268155   -3.676479    0.000784   -0.003138   -0.001220
C    -2.368144    4.084110   -3.640583    0.000818   -0.003228   -0.001012
C    -5.245753    3.598109   -3.733832    0.000694    0.000994    0.002626
C    -5.315736    2.941149   -4.964559    0.000534    0.000616    0.002652
C    -6.011380    3.503659   -6.028777    0.000660   -0.000232    0.002000
C    -6.649126    4.733543   -5.872923    0.000500   -0.000190    0.001308
C    -6.585684    5.390453   -4.647823    0.000398    0.000142    0.001180
C    -5.886860    4.825428   -3.582368    0.000296    0.000832    0.001666
O    -6.357638    1.808160   -0.886870    0.004382   -0.000768   -0.003260
C     0.675634    0.062295    2.298820   -0.022000   -0.029046    0.042504
N     0.624871   -0.005043    0.818020    0.006750    0.001288    0.015600
P     1.970898   -0.412221   -0.040751   -0.007714    0.014282    0.015124
H    -0.179821   -0.451042    4.938121   -0.135068    0.023254   -0.060718
H    -1.562797    0.648182    4.987777   -0.001880    0.113204    0.101760
H    -0.309641    0.760782    6.231970    0.094948    0.015080    0.024008
H    -1.288383    3.122741    4.473110    0.025202    0.032034   -0.019494
H     0.318201    3.780641    4.103213    0.033628    0.022396   -0.005960
H    -0.062160    3.217569    5.744590    0.010430    0.028534   -0.007988
H     2.377281    2.152638    3.986179    0.017300   -0.016608   -0.013626
H     2.167229    0.507266    4.629129   -0.011108   -0.000284    0.024772
H     1.952606    1.901408    5.688761    0.016040    0.027766   -0.005708
H    -1.923212    0.678667    2.653223    0.053812   -0.071044    0.014774
H    -4.450165    1.499563    1.909549   -0.002816   -0.007900    0.026720
H    -6.344063    0.896476    2.599865   -0.002328   -0.008214   -0.003084
H    -7.345219    0.958103    1.133338   -0.009966    0.000072    0.002230
H    -8.027815    1.385187    2.716639   -0.000104    0.000156    0.005896
H    -7.398483    3.486644    3.882093    0.001774   -0.001262    0.001056
H    -6.264656    4.638218    3.148187    0.003946   -0.003560   -0.000224
H    -5.677628    3.081104    3.768442    0.001078   -0.004082    0.001140
H    -7.696863    4.718336    1.028805    0.006168   -0.001282    0.000756
H    -8.826297    3.630836    1.854466    0.002892    0.001224   -0.000208
H    -8.206228    3.202619    0.249234    0.002906    0.000054   -0.000046
H    -4.261033    4.181448   -0.871480    0.013344   -0.007310    0.012630
H    -4.817286    1.981038   -5.085810    0.000796    0.000592    0.003126
H    -6.062286    2.980001   -6.979460    0.000794   -0.000614    0.002126
H    -7.197121    5.173354   -6.701440    0.000528   -0.000490    0.001098
H    -7.083848    6.347195   -4.517144    0.000294    0.000130    0.000850
H    -5.845102    5.340665   -2.626864    0.000508    0.000502    0.001796
H     0.116757   -0.784422    2.722831   -0.143810    0.007932    0.000268
H     1.718870   -0.001752    2.620445   -0.026682   -0.069516    0.052122
C     4.061800   -3.860785   -0.564465   -0.007506   -0.005718   -0.001192
C     3.978518   -4.408946    0.719481   -0.008234   -0.005780    0.000080
H     4.537956   -5.315109    0.931472    0.001824    0.000818    0.003740
C     3.202495   -3.849580    1.739509   -0.010364   -0.004884   -0.000022
C     3.209065   -4.462279    3.142121   -0.004692    0.003248    0.004498
C     2.496165   -2.681656    1.452462   -0.012874   -0.002604    0.000702
H     1.872130   -2.226907    2.210778   -0.021718   -0.004042   -0.003270
C     2.600854   -2.090603    0.192037   -0.001346    0.002600    0.002632
C     3.368046   -2.676650   -0.815453   -0.002702   -0.000188    0.002244
H     3.420216   -2.200049   -1.788299    0.011650    0.009772    0.007246
C     4.123798    2.942104    0.802607    0.002068    0.000674   -0.000034
C     3.070129    2.068041    0.528095    0.001696    0.000220    0.003480
C     3.302462    0.689643    0.485308    0.003458    0.000980    0.002478
C     4.570301    0.168259    0.727796    0.003496    0.000902   -0.001576
C     5.639294    1.019108    1.013938    0.002802    0.001090   -0.001746
C     5.392209    2.392753    1.040584    0.002482    0.001016   -0.001778
C     2.535864    0.641403   -3.921405    0.001720   -0.003928    0.001176
C     2.682917    0.465345   -2.540810    0.002450   -0.006452    0.001806
H     3.588714    0.798972   -2.044401    0.003432   -0.008232    0.001424
C     1.674442   -0.139214   -1.798261    0.000960    0.001192    0.005424
C     0.492356   -0.577475   -2.408889   -0.002532    0.013390    0.002798
C     0.315855   -0.397919   -3.777066    0.000188    0.002774    0.001322
C     1.352323    0.204818   -4.508517    0.002434   -0.003342   -0.000290
H     1.215610    0.338949   -5.575485    0.003166   -0.003470   -0.000374
H    -0.294462   -1.018669   -1.807826   -0.017772    0.043906    0.004726
H    -0.287513   -0.300111    0.441691    0.021146   -0.020942    0.028218
H     4.725044   -0.904465    0.682590    0.005268    0.001168    0.001592
H     6.214645    3.063841    1.250532    0.002062    0.001318   -0.001140
H     2.070071    2.451259    0.340212   -0.001044   -0.001672    0.015500
H    -3.008044    4.662789   -4.300397    0.000560   -0.002572   -0.000176
H    -0.558798    4.991334   -4.366170    0.000538   -0.002188   -0.000424
H    -0.081680    2.054878   -1.268194   -0.000640    0.010702    0.012788
H     0.917300    3.701591   -2.836789    0.000194    0.002402    0.004028
H    -2.515787    1.695436   -1.232341   -0.002010    0.014224    0.014710
H    -4.644644    1.886684   -2.637176   -0.002032    0.002370    0.003754
C     2.138255   -3.839265    4.047923   -0.003176    0.005898    0.003932
H     2.151939   -4.342383    5.020367   -0.009782    0.001552    0.001502
H     1.133089   -3.946373    3.624670   -0.008918    0.041242    0.011712
H     2.322138   -2.774127    4.228846   -0.000314    0.002680    0.009938
C     4.595685   -4.199231    3.764409   -0.001510    0.010870   -0.004328
H     5.392490   -4.653002    3.164921   -0.001184    0.005790   -0.000660
H     4.641245   -4.625130    4.773576   -0.000390    0.022822    0.000302
H     4.791386   -3.123016    3.834557   -0.005840    0.011594   -0.014918
C     2.965333   -5.980211    3.075914    0.016014   -0.000542    0.018058
H     2.948808   -6.392968    4.090703    0.051664    0.004382    0.019906
H     3.751475   -6.500510    2.520407    0.001692    0.002360   -0.005030
H     2.010552   -6.202795    2.591564   -0.001718   -0.021718    0.065830
C     4.906787   -4.555665   -1.632945   -0.000182   -0.000374   -0.000136
C     6.371887   -4.617385   -1.159525   -0.001476    0.002996    0.004496
H     6.770509   -3.609417   -0.996640   -0.007282    0.003858    0.010420
H     6.988521   -5.112785   -1.918224    0.002830    0.009944    0.003640
H     6.472942   -5.178746   -0.225277   -0.001386   -0.000546    0.002254
C     4.373950   -5.985479   -1.847584    0.009618   -0.003300   -0.004972
H     4.962993   -6.488677   -2.623050    0.027216   -0.006446    0.010696
H     3.324964   -5.963869   -2.158820    0.018998   -0.010674   -0.039656
H     4.439953   -6.582602   -0.932628   -0.008940    0.000268   -0.001006
C     4.862727   -3.814422   -2.974502    0.002214    0.000930    0.000466
H     3.842203   -3.754852   -3.369155    0.003526    0.004882   -0.003010
H     5.473381   -4.354291   -3.705596    0.002896    0.001636    0.000672
H     5.264859   -2.797715   -2.890963    0.003190   -0.000182    0.002650
C     3.672582    1.293480   -4.709340    0.000482   -0.001656    0.001232
C    -0.957222   -0.829350   -4.506758   -0.000666    0.002930    0.002578
C     3.347664    1.421370   -6.201477    0.000172   -0.000672    0.001274
H     3.181936    0.442979   -6.665935    0.001496   -0.000222   -0.000400
H     4.190401    1.895546   -6.715089   -0.000450    0.001098    0.002000
H     2.461207    2.042880   -6.370195   -0.000268   -0.001170    0.001982
C     3.938381    2.702788   -4.145572   -0.001376   -0.001732    0.002418
H     4.216998    2.672136   -3.086951   -0.001968   -0.001702    0.002468
H     3.047600    3.332837   -4.244697   -0.001874   -0.002632    0.002492
H     4.758681    3.177146   -4.696264   -0.001738   -0.000864    0.002752
C     4.942612    0.432943   -4.556963    0.001644   -0.000072    0.000350
H     5.767106    0.878068   -5.125496    0.000838    0.001704    0.000704
H     4.770687   -0.581388   -4.934513    0.003260    0.000082   -0.001324
H     5.257198    0.357987   -3.510572    0.002174   -0.000022    0.000178
C    -1.999001   -1.423622   -3.552412   -0.000930    0.004790    0.004054
H    -1.627867   -2.329776   -3.059073    0.001670    0.009636    0.012580
H    -2.893295   -1.699361   -4.121556    0.001080   -0.002528    0.004638
H    -2.294821   -0.705749   -2.780360   -0.006534    0.010386   -0.003266
C    -0.594278   -1.893526   -5.560494   -0.002534    0.001726    0.002866
H    -1.498250   -2.216457   -6.089466   -0.002620    0.001792    0.002962
H    -0.140979   -2.770355   -5.084816   -0.001248    0.001388    0.001742
H     0.109840   -1.504985   -6.303380   -0.002846    0.001054    0.002530
C    -1.583909    0.395286   -5.202744   -0.001666    0.001650    0.001646
H    -0.910819    0.831342   -5.947675   -0.001360   -0.000498    0.000934
H    -1.832545    1.172101   -4.471563    0.000340    0.003064    0.000660
H    -2.504090    0.096090   -5.718075   -0.002342    0.002082    0.002640
C     7.023205    0.412871    1.251493    0.002432    0.000834   -0.000390
C     3.872847    4.450396    0.867922    0.000624    0.000174    0.000330
C     8.071561    1.471692    1.610075    0.002338    0.000700   -0.000154
H     9.036064    0.981936    1.779469    0.002474    0.001090    0.000680
H     7.804552    2.010977    2.525810    0.001188    0.000602   -0.000578
H     8.206571    2.200389    0.803215    0.002216    0.000824   -0.000032
C     7.472780   -0.308483   -0.034960    0.003530    0.000504    0.000194
H     6.776178   -1.107736   -0.309885    0.002674    0.001106    0.000004
H     8.461945   -0.757521    0.111415    0.003356   -0.000082    0.000422
H     7.532978    0.394831   -0.873097    0.004044    0.000366    0.000042
C     6.943817   -0.606650    2.404400    0.001924    0.001492    0.000134
H     6.596148   -0.125843    3.325492   -0.000582    0.001548   -0.001028
H     7.934827   -1.035342    2.591593    0.002028    0.002236    0.002026
H     6.262197   -1.431416    2.171672    0.002102    0.001296    0.000028
C     3.013175    4.898898   -0.329052   -0.000186   -0.001112    0.000234
H     3.501236    4.640638   -1.276506   -0.001098   -0.001580   -0.000382
H     2.879221    5.985654   -0.296694   -0.000278   -0.001102   -0.000096
H     2.015798    4.452553   -0.311436   -0.000402   -0.000778    0.003244
C     5.178629    5.256507    0.847474    0.000266    0.000704   -0.000080
H     5.778294    5.033252   -0.042776    0.000762    0.001350   -0.000126
H     5.791482    5.073923    1.736682    0.000032    0.001126    0.000204
H     4.937392    6.324238    0.832418   -0.000556    0.000512    0.000286
C     3.123773    4.754827    2.180386   -0.000932   -0.000740   -0.000482
H     3.720561    4.444404    3.046002   -0.002850   -0.001632    0.000286
H     2.159618    4.239497    2.208762   -0.001054   -0.000424   -0.001036
H     2.930972    5.831174    2.260352   -0.000280   -0.000594   -0.000940