220
* (null), Energy   -1000.0000000
C     0.308849   -1.860131    4.832198   -0.007750    0.018358   -0.014348
C    -0.397846   -0.499369    4.795929   -0.010158    0.017168    0.009978
C    -1.725617   -0.591557    5.562075   -0.006014    0.001242    0.013230
C     0.486741    0.561676    5.468416   -0.008584    0.005328    0.026834
C    -0.711748   -0.046162    3.342086   -0.010438    0.053496    0.019144
H    -1.336832    0.852770    3.405404   -0.061124    0.015972    0.056550
N    -1.519306   -1.040609    2.630359    0.042550    0.028900   -0.006112
C    -2.785631   -0.793541    2.324136    0.044380   -0.003742   -0.002604
C    -3.634159    0.416890    2.411309    0.011656   -0.013170    0.012726
C    -4.756768   -0.386715    1.809864    0.025316   -0.016340    0.011140
O    -5.913495   -0.171510    1.450753    0.020478   -0.013114   -0.000084
O    -3.471213    1.572709    2.779634   -0.008800   -0.006828    0.009020
C    -3.850743   -1.543710    1.769197    0.029386   -0.002200   -0.002800
N    -3.997974   -2.810735    1.379420    0.022158   -0.005226   -0.006474
C    -5.222288   -3.244670    0.692037    0.015580    0.002826    0.001272
H    -6.035525   -2.623408    1.086203    0.022078    0.007894    0.006866
C    -5.592984   -4.711561    1.005778    0.006070    0.003718    0.000390
C    -4.472599   -5.711256    0.686921    0.003380    0.000652    0.000728
C    -5.930313   -4.798541    2.502449    0.004096    0.003296   -0.000090
C    -6.842756   -5.057366    0.184040    0.004754    0.005878    0.000718
C    -5.039871   -2.897818   -0.799354    0.003306    0.000300    0.000014
N    -5.525941   -1.680096   -1.122184    0.001254    0.002176    0.003724
C    -5.172993   -1.007999   -2.373184    0.001012    0.000142    0.003114
C    -4.646735    0.381545   -2.028099    0.001582    0.000492   -0.000104
C    -3.501970    0.470194   -1.227991    0.002502   -0.000258   -0.001416
C    -3.015902    1.705711   -0.824763    0.003478   -0.000746   -0.001338
C    -3.658197    2.875109   -1.229182    0.002232   -0.000796   -0.000020
C    -4.783757    2.795667   -2.041212    0.001128    0.000278    0.000848
C    -5.279613    1.553086   -2.437461    0.000710    0.000510    0.000534
C    -6.301274   -1.007025   -3.383635    0.001206   -0.000082    0.002102
C    -7.639966   -0.973417   -2.994719    0.000868   -0.000528    0.001256
C    -8.650169   -0.926970   -3.952624    0.000772   -0.000384    0.001204
C    -8.332005   -0.913437   -5.308000    0.000404   -0.000300    0.001002
C    -6.996187   -0.948800   -5.702334    0.000624   -0.000198    0.001376
C    -5.988625   -0.996195   -4.744147    0.000474    0.000052    0.001708
O    -4.430056   -3.620109   -1.592582   -0.007144   -0.002658   -0.005132
C     0.542064    0.323342    2.540264    0.000696    0.160352    0.082956
N     0.195269    0.560710    1.119055    0.033888   -0.043448    0.019316
P     1.140673    1.630879    0.263548   -0.011548   -0.017124    0.017004
H     1.252192   -1.861027    4.277746   -0.041762    0.027400   -0.068318
H    -0.318710   -2.658446    4.421607   -0.024386    0.032588   -0.013550
H     0.535449   -2.129308    5.869669    0.020374    0.017646   -0.018808
H    -2.248266    0.372836    5.562788   -0.006242    0.001786    0.037780
H    -1.538450   -0.881026    6.601887   -0.008296   -0.026502    0.007056
H    -2.391217   -1.341167    5.121012   -0.006354    0.014348   -0.009166
H     1.499555    0.575703    5.051211   -0.014122    0.014032    0.013890
H     0.576496    0.342105    6.537615   -0.000876   -0.012544    0.023496
H     0.052413    1.564413    5.365016   -0.009634    0.007602    0.047004
H    -1.108297   -1.941108    2.392533    0.247206    0.184328   -0.271646
H    -3.159490   -3.381214    1.290735    0.025444    0.003102   -0.028012
H    -3.556369   -5.497822    1.250707   -0.000090   -0.002272    0.007214
H    -4.235881   -5.717385   -0.378655    0.011776    0.010570    0.002280
H    -4.800739   -6.715853    0.977097   -0.001794   -0.000792   -0.008390
H    -6.746190   -4.114721    2.764443    0.002600    0.002254   -0.001956
H    -5.062187   -4.548828    3.121528    0.003070    0.007794   -0.000722
H    -6.245211   -5.817000    2.754131    0.005832    0.002618    0.000808
H    -7.655083   -4.348796    0.386540    0.007394    0.009588   -0.001162
H    -7.196625   -6.059644    0.447942    0.000872    0.007508    0.002978
H    -6.630414   -5.044170   -0.889896    0.005244    0.003520    0.000826
H    -5.920154   -1.109893   -0.374973    0.031596    0.010108    0.016394
H    -7.898264   -0.985085   -1.939319    0.002702   -0.000872    0.001698
H    -9.689732   -0.902862   -3.637604    0.000744   -0.000112    0.001420
H    -9.121051   -0.881063   -6.053979    0.000338   -0.000082    0.000936
H    -6.739293   -0.947231   -6.758052    0.000902    0.000174    0.001324
H    -4.945352   -1.028224   -5.052176    0.000692    0.000798    0.002274
H     1.314942   -0.447883    2.618021    0.031480    0.202422    0.112756
H     0.931193    1.255187    2.961787   -0.148516    0.241358    0.043896
C     4.934175    0.701478   -0.969413    0.005154   -0.000580   -0.000762
C     5.606448    0.709338    0.251822    0.006780    0.007424   -0.000842
H     6.666555    0.482221    0.269072    0.011760    0.027178   -0.002838
C     4.971292    1.010893    1.468743    0.002076    0.003134   -0.002064
C     5.782753    1.068343    2.764000   -0.000362    0.008190    0.000658
C     3.608776    1.277967    1.442984    0.001158   -0.001832   -0.003904
H     3.089365    1.536543    2.357788   -0.010814   -0.022456   -0.005436
C     2.907026    1.253902    0.229853    0.004688    0.008766   -0.004436
C     3.561603    0.980668   -0.965577    0.004592    0.001718   -0.000610
H     3.004539    1.002105   -1.896551    0.003702    0.007824   -0.000288
C    -0.377658    4.861588    2.241306   -0.003516    0.000744   -0.002300
C    -0.221017    3.576437    1.704209   -0.008024    0.001650   -0.005656
C     0.962047    3.237921    1.053887   -0.010722   -0.001010   -0.007842
C     2.002256    4.164428    0.908299   -0.009440   -0.002162   -0.005954
C     1.862601    5.451064    1.414574   -0.004138   -0.002550   -0.001464
C     0.667403    5.770159    2.077430   -0.001946   -0.000572    0.000320
C    -0.056051    3.077642   -3.331995    0.005176   -0.002078    0.000628
C     0.337104    2.964994   -1.997410    0.012340   -0.003402   -0.000950
H     0.495913    3.856088   -1.398613    0.015030   -0.002728   -0.002458
C     0.528586    1.708777   -1.427362    0.010126   -0.002462    0.002224
C     0.331248    0.540173   -2.168279   -0.002510   -0.001382    0.004454
C    -0.062058    0.626716   -3.505158    0.002136   -0.000620    0.002614
C    -0.248224    1.900967   -4.057987    0.003582   -0.001206    0.000318
H    -0.550028    1.975386   -5.094209    0.000242   -0.001304    0.001220
H     0.479160   -0.429942   -1.703519   -0.034478    0.000062    0.018676
H     0.022461   -0.321181    0.629889    0.698814   -0.314410    0.235614
H     2.910309    3.865404    0.397465   -0.010920   -0.002128   -0.008648
H     0.557379    6.769667    2.482567    0.000116   -0.001344    0.002992
H    -1.015622    2.840534    1.801202   -0.008548    0.002340   -0.001506
H    -6.167313    1.499305   -3.060899   -0.000560    0.000910    0.002126
H    -5.290897    3.702097   -2.360429    0.000256    0.000634    0.002638
H    -2.136334    1.754136   -0.189985    0.005002   -0.008560   -0.002830
H    -3.280841    3.841411   -0.907452    0.001912   -0.000786    0.000870
H    -2.995142   -0.439143   -0.909874    0.004694    0.002038    0.001114
H    -4.345973   -1.590421   -2.801419    0.000662   -0.000418    0.002686
C     6.391358   -0.315858    3.048950    0.003694    0.011746    0.007626
H     6.973971   -0.283436    3.976445   -0.006688    0.010216    0.014162
H     7.054645   -0.643407    2.243652    0.022534    0.031704    0.014456
H     5.602124   -1.066434    3.167311   -0.001812    0.016538    0.005746
C     4.923184    1.474830    3.967303   -0.003696    0.003156   -0.000464
H     4.477181    2.467897    3.835672   -0.005472    0.000918   -0.004468
H     5.552581    1.508218    4.862365   -0.006320    0.006798    0.001482
H     4.121298    0.751345    4.154214   -0.005010    0.004238   -0.004804
C     6.911227    2.105825    2.603883    0.000180    0.006942    0.003696
H     7.491154    2.168811    3.531497   -0.002298    0.010734    0.005136
H     6.499549    3.098253    2.386285   -0.002092    0.004876    0.001580
H     7.599214    1.835988    1.796842    0.002386    0.009600    0.004334
C     5.650022    0.477319   -2.304354    0.003624    0.001194   -0.002052
C     7.077591   -0.050130   -2.115479    0.006492    0.007082   -0.008290
H     7.091978   -0.985948   -1.545368    0.014880    0.001892   -0.016884
H     7.716238    0.676727   -1.602477    0.004484    0.005212   -0.003698
H     7.523566   -0.243120   -3.096651    0.006526    0.014102   -0.009562
C     4.873453   -0.525070   -3.179112    0.005876   -0.000636   -0.002134
H     3.865871   -0.170401   -3.416722   -0.000624   -0.011878    0.012566
H     4.785367   -1.500116   -2.688346    0.022008   -0.007844   -0.011848
H     5.403111   -0.670371   -4.127052   -0.003234    0.010108   -0.008722
C     5.712948    1.832372   -3.038873   -0.000086    0.000658   -0.002740
H     4.708274    2.223202   -3.235285   -0.001326   -0.003092   -0.000660
H     6.229377    1.716216   -3.998904   -0.000476    0.003572   -0.003300
H     6.256760    2.571888   -2.440702   -0.003080    0.001848   -0.001796
C    -0.242565    4.470068   -3.937679    0.001576   -0.001556    0.001266
C    -0.316886   -0.644747   -4.319652   -0.001240   -0.000092    0.001866
C    -0.659039    4.413958   -5.411678    0.000266   -0.000738    0.001344
H    -1.616204    3.897076   -5.542124    0.000848   -0.001974    0.002320
H     0.095681    3.913948   -6.028963   -0.000058   -0.000328    0.000434
H    -0.777238    5.434122   -5.791265   -0.001320   -0.000572    0.001770
C    -1.333954    5.222896   -3.153224    0.001236   -0.002566    0.001636
H    -1.072690    5.329572   -2.094949    0.001582   -0.004464    0.001674
H    -2.289004    4.690506   -3.214480    0.002104   -0.004106    0.002372
H    -1.467739    6.227154   -3.571287   -0.000304   -0.002086    0.002720
C     1.087082    5.243660   -3.835100   -0.000118    0.001504   -0.000582
H     0.973881    6.240220   -4.276826   -0.001716    0.001802    0.000002
H     1.885182    4.717398   -4.370519    0.000124    0.002590   -0.001650
H     1.401838    5.371769   -2.793966    0.000648    0.000952   -0.000790
C     0.766948   -1.697454   -4.030174   -0.002574   -0.002208    0.002836
H     0.587967   -2.584146   -4.648533   -0.003956   -0.002908    0.003490
H     0.756132   -2.017587   -2.984210   -0.009066    0.001984    0.004196
H     1.766042   -1.313059   -4.265758   -0.002370   -0.001952    0.001618
C    -0.325861   -0.371418   -5.830417    0.001104   -0.000958    0.001442
H     0.605556    0.103123   -6.160076    0.001320   -0.000754    0.001508
H    -1.166175    0.263302   -6.130173    0.001812   -0.000288    0.000984
H    -0.430355   -1.321094   -6.365182    0.000018   -0.001052    0.001354
C    -1.691390   -1.210380   -3.911495   -0.001456    0.000306    0.000262
H    -2.479109   -0.469606   -4.089829    0.000498    0.002396    0.000488
H    -1.705460   -1.476932   -2.850157   -0.001664   -0.001220   -0.000532
H    -1.918134   -2.109411   -4.497892   -0.003004    0.001376   -0.001246
C     2.960760    6.505977    1.277827   -0.002462   -0.002726   -0.000566
C    -1.665864    5.211354    2.987081   -0.002022    0.000464   -0.000288
C     3.413971    6.950271    2.681953   -0.001270   -0.001774   -0.001190
H     2.591285    7.390826    3.253790   -0.001310   -0.001968   -0.001236
H     4.206254    7.702640    2.597560   -0.001014   -0.001706   -0.001136
H     3.806258    6.098890    3.249078   -0.002300   -0.001974   -0.000644
C     2.402754    7.718676    0.508314   -0.000170   -0.001534   -0.000512
H     3.183102    8.479534    0.394498    0.000120   -0.001442   -0.000004
H     1.558438    8.178416    1.031475   -0.000536   -0.002076   -0.000740
H     2.063879    7.420565   -0.490418   -0.000510   -0.001262   -0.000470
C     4.183216    5.973425    0.520886   -0.002054   -0.002368   -0.000386
H     4.640691    5.120599    1.035527   -0.004176   -0.003866   -0.000772
H     4.937623    6.763755    0.451744   -0.001198   -0.002798    0.000706
H     3.926948    5.666970   -0.499788   -0.002306   -0.001764   -0.000494
C    -1.686627    6.668429    3.462751   -0.001374    0.000492   -0.000158
H    -0.874891    6.880151    4.167878   -0.000878    0.000104   -0.000406
H    -2.632337    6.861148    3.979309   -0.001154    0.000598    0.000384
H    -1.615619    7.371638    2.624981   -0.001308    0.000688   -0.000178
C    -1.788427    4.291456    4.218123   -0.000634   -0.000378   -0.000770
H    -2.698573    4.537651    4.776764    0.000170   -0.000128    0.000652
H    -0.927601    4.419989    4.884375    0.000708   -0.001614   -0.002134
H    -1.857099    3.240059    3.925079   -0.001696   -0.000054   -0.001384
C    -2.870946    4.984150    2.054364   -0.003032   -0.000046    0.001196
H    -2.956465    3.938257    1.747257   -0.004438   -0.000782    0.004240
H    -2.789074    5.610535    1.158327   -0.002970   -0.002264   -0.000458
H    -3.797990    5.247589    2.575742   -0.002394    0.001798    0.001528
O    -0.683792   -2.209305   -0.630020    0.003004   -0.003348   -0.091490
O     1.819048   -4.813947    3.808579    0.019888    0.100996   -0.132482
H    -0.920139   -4.621103   -2.205228    0.060280    0.008378    0.056392
H    -2.427634   -4.312940   -1.277508    0.088734    0.065868    0.057510
H     2.697378   -2.307426   -1.178489    0.047904   -0.193560   -0.079500
C     2.133538   -3.475876    0.555816    0.448284   -0.751014   -0.484886
C     3.074339   -2.777652   -0.274985    0.048002   -0.201914   -0.088428
C    -1.399441   -4.691958   -1.227618    0.075262    0.038520    0.065294
C     1.768907   -4.962904    2.588667   -0.012230   -0.044658   -0.102366
C     2.667712   -4.209728    1.676753    0.049854   -0.097118   -0.155710
C     4.394643   -2.697810    0.064035    0.056540    0.087710    0.062410
S    -0.581001   -3.576780   -0.077994    0.080358    0.084598    0.066522
H     5.098038   -2.162179   -0.560603    0.020294    0.308488    0.210620
C     3.991597   -4.067464    2.034727    0.021660    0.048582    0.035346
C     4.865076   -3.335405    1.226242   -0.044462    0.029948   -0.000230
H     0.468187   -7.322230    3.544052    0.010376    0.031604    0.030188
N     1.045693   -4.117950   -0.188869    0.064626   -0.111738   -0.047634
H     4.362319   -4.563453    2.924797   -0.039036    0.241036    0.160498
N     6.256727   -3.290358    1.534645    0.074348    0.032916    0.039114
H    -1.379266   -5.711429   -0.839251    0.024002    0.040376    0.067154
N     0.876986   -5.866358    2.035900    0.011282   -0.051798   -0.041910
C    -0.036645   -6.543485    2.958726    0.004516    0.002910   -0.000752
O    -1.215412   -3.800212    1.251968    0.016244   -0.003374    0.009476
H     2.820036   -4.573631   -2.549467    0.018116   -0.129998   -0.019144
H    -0.440710   -5.804342    3.653206    0.008812    0.044214   -0.044146
C     1.225557   -5.534789   -0.355276   -0.118900   -0.123816   -0.076736
C     1.053790   -6.393306    0.741617   -0.050350   -0.084472   -0.048692
H    -0.851670   -6.985567    2.380872    0.006488   -0.019212    0.016838
C     1.893754   -5.121084   -2.761673   -0.015988   -0.070806   -0.021046
C     1.563764   -6.038624   -1.620883   -0.046718   -0.101614   -0.055256
H     2.030065   -5.689471   -3.684685   -0.047924   -0.037856   -0.044662
H     1.122293   -4.365268   -2.926181    0.021844   -0.027096    0.023346
C     1.078875   -7.775753    0.540540   -0.013834   -0.081204   -0.019162
H     0.930207   -8.448652    1.378668    0.016646   -0.076808   -0.009970
C     1.606808   -7.422780   -1.789396   -0.007690   -0.098098   -0.032162
C     1.336682   -8.279709   -0.726567   -0.000818   -0.083966   -0.017524
H     1.853118   -7.830685   -2.765712    0.019632   -0.113126   -0.019198
H     1.362890   -9.354870   -0.878856    0.028322   -0.084814   -0.002278
F     1.207480   -2.238483    1.323923   -0.738892    0.695378    0.506566
O     6.656615   -3.808553    2.587301   -0.003890    0.025254    0.008150
O     7.023737   -2.722705    0.736345    0.012252   -0.015494    0.025648
220
* Frequency(6) -208.4900
C     0.307968   -1.858045    4.830567   -0.007750    0.018358   -0.014348
C    -0.399000   -0.497418    4.797063   -0.010158    0.017168    0.009978
C    -1.726300   -0.591416    5.563579   -0.006014    0.001242    0.013230
C     0.485765    0.562281    5.471466   -0.008584    0.005328    0.026834
C    -0.712934   -0.040082    3.344262   -0.010438    0.053496    0.019144
H    -1.343778    0.854585    3.411831   -0.061124    0.015972    0.056550
N    -1.514470   -1.037325    2.629664    0.042550    0.028900   -0.006112
C    -2.780587   -0.793966    2.323840    0.044380   -0.003742   -0.002604
C    -3.632834    0.415393    2.412755    0.011656   -0.013170    0.012726
C    -4.753891   -0.388572    1.811130    0.025316   -0.016340    0.011140
O    -5.911168   -0.173000    1.450743    0.020478   -0.013114   -0.000084
O    -3.472213    1.571933    2.780659   -0.008800   -0.006828    0.009020
C    -3.847403   -1.543960    1.768879    0.029386   -0.002200   -0.002800
N    -3.995456   -2.811329    1.378684    0.022158   -0.005226   -0.006474
C    -5.220517   -3.244349    0.692182    0.015580    0.002826    0.001272
H    -6.033016   -2.622511    1.086983    0.022078    0.007894    0.006866
C    -5.592294   -4.711138    1.005822    0.006070    0.003718    0.000390
C    -4.472215   -5.711182    0.687004    0.003380    0.000652    0.000728
C    -5.929848   -4.798166    2.502439    0.004096    0.003296   -0.000090
C    -6.842216   -5.056698    0.184122    0.004754    0.005878    0.000718
C    -5.039495   -2.897784   -0.799352    0.003306    0.000300    0.000014
N    -5.525798   -1.679849   -1.121761    0.001254    0.002176    0.003724
C    -5.172878   -1.007983   -2.372830    0.001012    0.000142    0.003114
C    -4.646555    0.381601   -2.028111    0.001582    0.000492   -0.000104
C    -3.501686    0.470165   -1.228152    0.002502   -0.000258   -0.001416
C    -3.015507    1.705626   -0.824915    0.003478   -0.000746   -0.001338
C    -3.657943    2.875019   -1.229184    0.002232   -0.000796   -0.000020
C    -4.783629    2.795699   -2.041116    0.001128    0.000278    0.000848
C    -5.279532    1.553144   -2.437400    0.000710    0.000510    0.000534
C    -6.301137   -1.007034   -3.383396    0.001206   -0.000082    0.002102
C    -7.639867   -0.973477   -2.994576    0.000868   -0.000528    0.001256
C    -8.650081   -0.927014   -3.952487    0.000772   -0.000384    0.001204
C    -8.331959   -0.913471   -5.307886    0.000404   -0.000300    0.001002
C    -6.996116   -0.948823   -5.702178    0.000624   -0.000198    0.001376
C    -5.988571   -0.996189   -4.743953    0.000474    0.000052    0.001708
O    -4.430868   -3.620411   -1.593165   -0.007144   -0.002658   -0.005132
C     0.542143    0.341565    2.549692    0.000696    0.160352    0.082956
N     0.199120    0.555772    1.121250    0.033888   -0.043448    0.019316
P     1.139361    1.628933    0.265480   -0.011548   -0.017124    0.017004
H     1.247446   -1.857913    4.269982   -0.041762    0.027400   -0.068318
H    -0.321481   -2.654743    4.420067   -0.024386    0.032588   -0.013550
H     0.537764   -2.127303    5.867532    0.020374    0.017646   -0.018808
H    -2.248975    0.373039    5.567082   -0.006242    0.001786    0.037780
H    -1.539393   -0.884038    6.602689   -0.008296   -0.026502    0.007056
H    -2.391939   -1.339536    5.119970   -0.006354    0.014348   -0.009166
H     1.497950    0.577298    5.052790   -0.014122    0.014032    0.013890
H     0.576396    0.340679    6.540285   -0.000876   -0.012544    0.023496
H     0.051318    1.565277    5.370358   -0.009634    0.007602    0.047004
H    -1.080203   -1.920160    2.361662    0.247206    0.184328   -0.271646
H    -3.156598   -3.380861    1.287552    0.025444    0.003102   -0.028012
H    -3.556379   -5.498080    1.251527   -0.000090   -0.002272    0.007214
H    -4.234543   -5.716184   -0.378396    0.011776    0.010570    0.002280
H    -4.800943   -6.715943    0.976144   -0.001794   -0.000792   -0.008390
H    -6.745895   -4.114465    2.764221    0.002600    0.002254   -0.001956
H    -5.061838   -4.547942    3.121446    0.003070    0.007794   -0.000722
H    -6.244548   -5.816702    2.754223    0.005832    0.002618    0.000808
H    -7.654243   -4.347706    0.386408    0.007394    0.009588   -0.001162
H    -7.196526   -6.058791    0.448280    0.000872    0.007508    0.002978
H    -6.629818   -5.043770   -0.889802    0.005244    0.003520    0.000826
H    -5.916563   -1.108744   -0.373110    0.031596    0.010108    0.016394
H    -7.897957   -0.985184   -1.939126    0.002702   -0.000872    0.001698
H    -9.689647   -0.902875   -3.637443    0.000744   -0.000112    0.001420
H    -9.121013   -0.881072   -6.053873    0.000338   -0.000082    0.000936
H    -6.739190   -0.947211   -6.757902    0.000902    0.000174    0.001324
H    -4.945273   -1.028133   -5.051918    0.000692    0.000798    0.002274
H     1.318520   -0.424879    2.630835    0.031480    0.202422    0.112756
H     0.914315    1.282616    2.966776   -0.148516    0.241358    0.043896
C     4.934761    0.701412   -0.969500    0.005154   -0.000580   -0.000762
C     5.607219    0.710182    0.251726    0.006780    0.007424   -0.000842
H     6.667891    0.485310    0.268749    0.011760    0.027178   -0.002838
C     4.971528    1.011249    1.468508    0.002076    0.003134   -0.002064
C     5.782712    1.069274    2.764075   -0.000362    0.008190    0.000658
C     3.608908    1.277759    1.442540    0.001158   -0.001832   -0.003904
H     3.088136    1.533991    2.357170   -0.010814   -0.022456   -0.005436
C     2.907559    1.254898    0.229349    0.004688    0.008766   -0.004436
C     3.562125    0.980863   -0.965646    0.004592    0.001718   -0.000610
H     3.004960    1.002994   -1.896584    0.003702    0.007824   -0.000288
C    -0.378058    4.861673    2.241045   -0.003516    0.000744   -0.002300
C    -0.221929    3.576625    1.703566   -0.008024    0.001650   -0.005656
C     0.960829    3.237806    1.052996   -0.010722   -0.001010   -0.007842
C     2.001183    4.164182    0.907622   -0.009440   -0.002162   -0.005954
C     1.862131    5.450774    1.414408   -0.004138   -0.002550   -0.001464
C     0.667182    5.770094    2.077466   -0.001946   -0.000572    0.000320
C    -0.055463    3.077406   -3.331924    0.005176   -0.002078    0.000628
C     0.338506    2.964607   -1.997518    0.012340   -0.003402   -0.000950
H     0.497621    3.855778   -1.398892    0.015030   -0.002728   -0.002458
C     0.529737    1.708497   -1.427109    0.010126   -0.002462    0.002224
C     0.330963    0.540016   -2.167773   -0.002510   -0.001382    0.004454
C    -0.061815    0.626646   -3.504861    0.002136   -0.000620    0.002614
C    -0.247817    1.900830   -4.057951    0.003582   -0.001206    0.000318
H    -0.550000    1.975238   -5.094070    0.000242   -0.001304    0.001220
H     0.475242   -0.429935   -1.701397   -0.034478    0.000062    0.018676
H     0.101878   -0.356912    0.656665    0.698814   -0.314410    0.235614
H     2.909068    3.865162    0.396482   -0.010920   -0.002128   -0.008648
H     0.557392    6.769514    2.482907    0.000116   -0.001344    0.002992
H    -1.016593    2.840800    1.801031   -0.008548    0.002340   -0.001506
H    -6.167377    1.499408   -3.060657   -0.000560    0.000910    0.002126
H    -5.290868    3.702169   -2.360129    0.000256    0.000634    0.002638
H    -2.135766    1.753163   -0.190307    0.005002   -0.008560   -0.002830
H    -3.280624    3.841322   -0.907353    0.001912   -0.000786    0.000870
H    -2.994609   -0.438911   -0.909747    0.004694    0.002038    0.001114
H    -4.345898   -1.590469   -2.801114    0.000662   -0.000418    0.002686
C     6.391778   -0.314523    3.049817    0.003694    0.011746    0.007626
H     6.973211   -0.282275    3.978054   -0.006688    0.010216    0.014162
H     7.057206   -0.639804    2.245295    0.022534    0.031704    0.014456
H     5.601918   -1.064555    3.167964   -0.001812    0.016538    0.005746
C     4.922764    1.475189    3.967250   -0.003696    0.003156   -0.000464
H     4.476559    2.468001    3.835164   -0.005472    0.000918   -0.004468
H     5.551863    1.508991    4.862533   -0.006320    0.006798    0.001482
H     4.120729    0.751827    4.153668   -0.005010    0.004238   -0.004804
C     6.911247    2.106614    2.604303    0.000180    0.006942    0.003696
H     7.490893    2.170031    3.532081   -0.002298    0.010734    0.005136
H     6.499311    3.098807    2.386465   -0.002092    0.004876    0.001580
H     7.599485    1.837079    1.797335    0.002386    0.009600    0.004334
C     5.650434    0.477455   -2.304587    0.003624    0.001194   -0.002052
C     7.078329   -0.049325   -2.116421    0.006492    0.007082   -0.008290
H     7.093669   -0.985733   -1.547287    0.014880    0.001892   -0.016884
H     7.716748    0.677319   -1.602897    0.004484    0.005212   -0.003698
H     7.524308   -0.241517   -3.097738    0.006526    0.014102   -0.009562
C     4.874121   -0.525142   -3.179355    0.005876   -0.000636   -0.002134
H     3.865800   -0.171751   -3.415294   -0.000624   -0.011878    0.012566
H     4.787868   -1.501007   -2.689692    0.022008   -0.007844   -0.011848
H     5.402743   -0.669222   -4.128043   -0.003234    0.010108   -0.008722
C     5.712938    1.832447   -3.039184   -0.000086    0.000658   -0.002740
H     4.708123    2.222851   -3.235360   -0.001326   -0.003092   -0.000660
H     6.229323    1.716622   -3.999279   -0.000476    0.003572   -0.003300
H     6.256410    2.572098   -2.440906   -0.003080    0.001848   -0.001796
C    -0.242386    4.469891   -3.937535    0.001576   -0.001556    0.001266
C    -0.317027   -0.644757   -4.319440   -0.001240   -0.000092    0.001866
C    -0.659009    4.413874   -5.411525    0.000266   -0.000738    0.001344
H    -1.616108    3.896852   -5.541860    0.000848   -0.001974    0.002320
H     0.095674    3.913911   -6.028914   -0.000058   -0.000328    0.000434
H    -0.777388    5.434057   -5.791064   -0.001320   -0.000572    0.001770
C    -1.333814    5.222604   -3.153038    0.001236   -0.002566    0.001636
H    -1.072510    5.329065   -2.094759    0.001582   -0.004464    0.001674
H    -2.288765    4.690039   -3.214210    0.002104   -0.004106    0.002372
H    -1.467774    6.226917   -3.570978   -0.000304   -0.002086    0.002720
C     1.087069    5.243831   -3.835166   -0.000118    0.001504   -0.000582
H     0.973686    6.240425   -4.276826   -0.001716    0.001802    0.000002
H     1.885196    4.717692   -4.370707    0.000124    0.002590   -0.001650
H     1.401912    5.371877   -2.794056    0.000648    0.000952   -0.000790
C     0.766655   -1.697705   -4.029852   -0.002574   -0.002208    0.002836
H     0.587517   -2.584476   -4.648136   -0.003956   -0.002908    0.003490
H     0.755102   -2.017362   -2.983733   -0.009066    0.001984    0.004196
H     1.765773   -1.313281   -4.265574   -0.002370   -0.001952    0.001618
C    -0.325736   -0.371527   -5.830253    0.001104   -0.000958    0.001442
H     0.605706    0.103037   -6.159905    0.001320   -0.000754    0.001508
H    -1.165969    0.263269   -6.130061    0.001812   -0.000288    0.000984
H    -0.430353   -1.321214   -6.365028    0.000018   -0.001052    0.001354
C    -1.691555   -1.210345   -3.911465   -0.001456    0.000306    0.000262
H    -2.479052   -0.469334   -4.089774    0.000498    0.002396    0.000488
H    -1.705649   -1.477071   -2.850217   -0.001664   -0.001220   -0.000532
H    -1.918475   -2.109255   -4.498034   -0.003004    0.001376   -0.001246
C     2.960480    6.505667    1.277763   -0.002462   -0.002726   -0.000566
C    -1.666094    5.211407    2.987048   -0.002022    0.000464   -0.000288
C     3.413827    6.950069    2.681818   -0.001270   -0.001774   -0.001190
H     2.591136    7.390602    3.253650   -0.001310   -0.001968   -0.001236
H     4.206139    7.702446    2.597431   -0.001014   -0.001706   -0.001136
H     3.805997    6.098666    3.249005   -0.002300   -0.001974   -0.000644
C     2.402735    7.718502    0.508256   -0.000170   -0.001534   -0.000512
H     3.183116    8.479370    0.394498    0.000120   -0.001442   -0.000004
H     1.558377    8.178180    1.031391   -0.000536   -0.002076   -0.000740
H     2.063821    7.420422   -0.490471   -0.000510   -0.001262   -0.000470
C     4.182983    5.973156    0.520842   -0.002054   -0.002368   -0.000386
H     4.640216    5.120160    1.035439   -0.004176   -0.003866   -0.000772
H     4.937487    6.763437    0.451824   -0.001198   -0.002798    0.000706
H     3.926686    5.666770   -0.499844   -0.002306   -0.001764   -0.000494
C    -1.686783    6.668485    3.462733   -0.001374    0.000492   -0.000158
H    -0.874991    6.880163    4.167832   -0.000878    0.000104   -0.000406
H    -2.632468    6.861216    3.979353   -0.001154    0.000598    0.000384
H    -1.615768    7.371716    2.624961   -0.001308    0.000688   -0.000178
C    -1.788499    4.291413    4.218035   -0.000634   -0.000378   -0.000770
H    -2.698554    4.537636    4.776838    0.000170   -0.000128    0.000652
H    -0.927521    4.419806    4.884132    0.000708   -0.001614   -0.002134
H    -1.857292    3.240053    3.924922   -0.001696   -0.000054   -0.001384
C    -2.871291    4.984145    2.054500   -0.003032   -0.000046    0.001196
H    -2.956969    3.938168    1.747739   -0.004438   -0.000782    0.004240
H    -2.789412    5.610278    1.158275   -0.002970   -0.002264   -0.000458
H    -3.798262    5.247793    2.575916   -0.002394    0.001798    0.001528